# Thermal properties / unit cell (natom)

unit:
  temperature:   K
  free_energy:   kJ/mol
  entropy:       J/K/mol
  heat_capacity: J/K/mol

natom: 80   
cutoff_frequency:    0.000
num_modes: 240000
num_integrated_modes: 240000

zero_point_energy:     348.8275084
high_T_entropy:       7283.3307500

thermal_properties:
- temperature:         0.0000000
  free_energy:       348.8275084
  entropy:             0.0000000
  heat_capacity:       0.0000000
  energy:            348.8275084

- temperature:        10.0000000
  free_energy:       348.8251030
  entropy:             1.0316613
  heat_capacity:       3.4259327
  energy:            348.8354196

- temperature:        20.0000000
  free_energy:       348.7751142
  entropy:            11.9669431
  heat_capacity:      42.2574109
  energy:            349.0144531

- temperature:        30.0000000
  free_energy:       348.5098512
  entropy:            44.9614325
  heat_capacity:     132.6077780
  energy:            349.8586942

- temperature:        40.0000000
  free_energy:       347.8082385
  entropy:            98.1699879
  heat_capacity:     244.3483120
  energy:            351.7350380

- temperature:        50.0000000
  free_energy:       346.5004328
  entropy:           165.2645328
  heat_capacity:     361.8147599
  energy:            354.7636594

- temperature:        60.0000000
  free_energy:       344.4719338
  entropy:           241.7153695
  heat_capacity:     480.3689685
  energy:            358.9748560

- temperature:        70.0000000
  free_energy:       341.6448321
  entropy:           324.5798732
  heat_capacity:     597.2413597
  energy:            364.3654232

- temperature:        80.0000000
  free_energy:       337.9660567
  entropy:           411.7434473
  heat_capacity:     709.8889880
  energy:            370.9055325

- temperature:        90.0000000
  free_energy:       333.4011239
  entropy:           501.5702496
  heat_capacity:     816.3364247
  energy:            378.5424463

- temperature:       100.0000000
  free_energy:       327.9300937
  entropy:           592.7739760
  heat_capacity:     915.3760655
  energy:            387.2074913

- temperature:       110.0000000
  free_energy:       321.5444129
  entropy:           684.3550835
  heat_capacity:    1006.4834930
  energy:            396.8234720

- temperature:       120.0000000
  free_energy:       314.2442926
  entropy:           775.5524966
  heat_capacity:    1089.6306299
  energy:            407.3105922

- temperature:       130.0000000
  free_energy:       306.0365477
  entropy:           865.7996095
  heat_capacity:    1165.1073676
  energy:            418.5904970

- temperature:       140.0000000
  free_energy:       296.9328533
  entropy:           954.6848753
  heat_capacity:    1233.3858376
  energy:            430.5887358

- temperature:       150.0000000
  free_energy:       286.9483673
  entropy:          1041.9181356
  heat_capacity:    1295.0273495
  energy:            443.2360876

- temperature:       160.0000000
  free_energy:       276.1006600
  entropy:          1127.3029312
  heat_capacity:    1350.6224016
  energy:            456.4691290

- temperature:       170.0000000
  free_energy:       264.4088926
  entropy:          1210.7143206
  heat_capacity:    1400.7538993
  energy:            470.2303271

- temperature:       180.0000000
  free_energy:       251.8931924
  entropy:          1292.0814118
  heat_capacity:    1445.9758906
  energy:            484.4678465

- temperature:       190.0000000
  free_energy:       238.5741835
  entropy:          1371.3737622
  heat_capacity:    1486.8023841
  energy:            499.1351983

- temperature:       200.0000000
  free_energy:       224.4726370
  entropy:          1448.5908728
  heat_capacity:    1523.7025625
  energy:            514.1908116

- temperature:       210.0000000
  free_energy:       209.6092140
  entropy:          1523.7541168
  heat_capacity:    1557.0999447
  energy:            529.5975785

- temperature:       220.0000000
  free_energy:       194.0042785
  entropy:          1596.9005685
  heat_capacity:    1587.3738861
  energy:            545.3224036

- temperature:       230.0000000
  free_energy:       177.6777658
  entropy:          1668.0783034
  heat_capacity:    1614.8623771
  energy:            561.3357756

- temperature:       240.0000000
  free_energy:       160.6490903
  entropy:          1737.3428332
  heat_capacity:    1639.8654708
  energy:            577.6113703

- temperature:       250.0000000
  free_energy:       142.9370859
  entropy:          1804.7544148
  heat_capacity:    1662.6489248
  energy:            594.1256896

- temperature:       260.0000000
  free_energy:       124.5599687
  entropy:          1870.3760302
  heat_capacity:    1683.4478018
  energy:            610.8577366

- temperature:       270.0000000
  free_energy:       105.5353179
  entropy:          1934.2718808
  heat_capacity:    1702.4698867
  energy:            627.7887257

- temperature:       280.0000000
  free_energy:        85.8800692
  entropy:          1996.5062750
  heat_capacity:    1719.8988419
  energy:            644.9018262

- temperature:       290.0000000
  free_energy:        65.6105184
  entropy:          2057.1428176
  heat_capacity:    1735.8970700
  energy:            662.1819355

- temperature:       300.0000000
  free_energy:        44.7423311
  entropy:          2116.2438275
  heat_capacity:    1750.6082774
  energy:            679.6154794

- temperature:       310.0000000
  free_energy:        23.2905580
  entropy:          2173.8699319
  heat_capacity:    1764.1597519
  energy:            697.1902369

- temperature:       320.0000000
  free_energy:         1.2696531
  entropy:          2230.0797914
  heat_capacity:    1776.6643714
  energy:            714.8951863

- temperature:       330.0000000
  free_energy:       -21.3065057
  entropy:          2284.9299267
  heat_capacity:    1788.2223684
  energy:            732.7203701

- temperature:       340.0000000
  free_energy:       -44.4245943
  entropy:          2338.4746197
  heat_capacity:    1798.9228756
  energy:            750.6567765

- temperature:       350.0000000
  free_energy:       -68.0718202
  entropy:          2390.7658717
  heat_capacity:    1808.8452767
  energy:            768.6962349

- temperature:       360.0000000
  free_energy:       -92.2358995
  entropy:          2441.8534020
  heat_capacity:    1818.0603851
  energy:            786.8313252

- temperature:       370.0000000
  free_energy:      -116.9050343
  entropy:          2491.7846781
  heat_capacity:    1826.6314725
  energy:            805.0552966

- temperature:       380.0000000
  free_energy:      -142.0678900
  entropy:          2540.6049667
  heat_capacity:    1834.6151656
  energy:            823.3619973

- temperature:       390.0000000
  free_energy:      -167.7135743
  entropy:          2588.3574002
  heat_capacity:    1842.0622290
  energy:            841.7458117

- temperature:       400.0000000
  free_energy:      -193.8316157
  entropy:          2635.0830531
  heat_capacity:    1849.0182479
  energy:            860.2016056

- temperature:       410.0000000
  free_energy:      -220.4119433
  entropy:          2680.8210252
  heat_capacity:    1855.5242251
  energy:            878.7246770

- temperature:       420.0000000
  free_energy:      -247.4448681
  entropy:          2725.6085276
  heat_capacity:    1861.6171026
  energy:            897.3107135

- temperature:       430.0000000
  free_energy:      -274.9210639
  entropy:          2769.4809707
  heat_capacity:    1867.3302183
  energy:            915.9557535

- temperature:       440.0000000
  free_energy:      -302.8315499
  entropy:          2812.4720513
  heat_capacity:    1872.6937064
  energy:            934.6561527

- temperature:       450.0000000
  free_energy:      -331.1676741
  entropy:          2854.6138390
  heat_capacity:    1877.7348485
  energy:            953.4085535

- temperature:       460.0000000
  free_energy:      -359.9210976
  entropy:          2895.9368598
  heat_capacity:    1882.4783827
  energy:            972.2098579

- temperature:       470.0000000
  free_energy:      -389.0837791
  entropy:          2936.4701772
  heat_capacity:    1886.9467747
  energy:            991.0572042

- temperature:       480.0000000
  free_energy:      -418.6479612
  entropy:          2976.2414704
  heat_capacity:    1891.1604579
  energy:           1009.9479446

- temperature:       490.0000000
  free_energy:      -448.6061565
  entropy:          3015.2771082
  heat_capacity:    1895.1380444
  energy:           1028.8796265

- temperature:       500.0000000
  free_energy:      -478.9511351
  entropy:          3053.6022206
  heat_capacity:    1898.8965119
  energy:           1047.8499752

- temperature:       510.0000000
  free_energy:      -509.6759125
  entropy:          3091.2407660
  heat_capacity:    1902.4513693
  energy:           1066.8568782

- temperature:       520.0000000
  free_energy:      -540.7737381
  entropy:          3128.2155951
  heat_capacity:    1905.8168033
  energy:           1085.8983714

- temperature:       530.0000000
  free_energy:      -572.2380848
  entropy:          3164.5485114
  heat_capacity:    1909.0058085
  energy:           1104.9726263

- temperature:       540.0000000
  free_energy:      -604.0626381
  entropy:          3200.2603285
  heat_capacity:    1912.0303036
  energy:           1124.0779393

- temperature:       550.0000000
  free_energy:      -636.2412873
  entropy:          3235.3709235
  heat_capacity:    1914.9012346
  energy:           1143.2127206

- temperature:       560.0000000
  free_energy:      -668.7681159
  entropy:          3269.8992886
  heat_capacity:    1917.6286664
  energy:           1162.3754857

- temperature:       570.0000000
  free_energy:      -701.6373930
  entropy:          3303.8635781
  heat_capacity:    1920.2218656
  energy:           1181.5648466

- temperature:       580.0000000
  free_energy:      -734.8435652
  entropy:          3337.2811540
  heat_capacity:    1922.6893740
  energy:           1200.7795041

- temperature:       590.0000000
  free_energy:      -768.3812491
  entropy:          3370.1686280
  heat_capacity:    1925.0390742
  energy:           1220.0182414

- temperature:       600.0000000
  free_energy:      -802.2452238
  entropy:          3402.5419018
  heat_capacity:    1927.2782492
  energy:           1239.2799173

- temperature:       610.0000000
  free_energy:      -836.4304240
  entropy:          3434.4162041
  heat_capacity:    1929.4136352
  energy:           1258.5634605

- temperature:       620.0000000
  free_energy:      -870.9319334
  entropy:          3465.8061261
  heat_capacity:    1931.4514697
  energy:           1277.8678648

- temperature:       630.0000000
  free_energy:      -905.7449786
  entropy:          3496.7256550
  heat_capacity:    1933.3975344
  energy:           1297.1921840

- temperature:       640.0000000
  free_energy:      -940.8649233
  entropy:          3527.1882044
  heat_capacity:    1935.2571941
  energy:           1316.5355276

- temperature:       650.0000000
  free_energy:      -976.2872624
  entropy:          3557.2066445
  heat_capacity:    1937.0354317
  energy:           1335.8970566

- temperature:       660.0000000
  free_energy:     -1012.0076170
  entropy:          3586.7933292
  heat_capacity:    1938.7368805
  energy:           1355.2759803

- temperature:       670.0000000
  free_energy:     -1048.0217294
  entropy:          3615.9601223
  heat_capacity:    1940.3658520
  energy:           1374.6715526

- temperature:       680.0000000
  free_energy:     -1084.3254579
  entropy:          3644.7184221
  heat_capacity:    1941.9263629
  energy:           1394.0830691

- temperature:       690.0000000
  free_energy:     -1120.9147727
  entropy:          3673.0791839
  heat_capacity:    1943.4221582
  energy:           1413.5098642

- temperature:       700.0000000
  free_energy:     -1157.7857516
  entropy:          3701.0529426
  heat_capacity:    1944.8567327
  energy:           1432.9513083

- temperature:       710.0000000
  free_energy:     -1194.9345754
  entropy:          3728.6498325
  heat_capacity:    1946.2333511
  energy:           1452.4068057

- temperature:       720.0000000
  free_energy:     -1232.3575245
  entropy:          3755.8796067
  heat_capacity:    1947.5550650
  energy:           1471.8757923

- temperature:       730.0000000
  free_energy:     -1270.0509751
  entropy:          3782.7516557
  heat_capacity:    1948.8247299
  energy:           1491.3577335

- temperature:       740.0000000
  free_energy:     -1308.0113954
  entropy:          3809.2750240
  heat_capacity:    1950.0450196
  energy:           1510.8521223

- temperature:       750.0000000
  free_energy:     -1346.2353424
  entropy:          3835.4584268
  heat_capacity:    1951.2184399
  energy:           1530.3584777

- temperature:       760.0000000
  free_energy:     -1384.7194588
  entropy:          3861.3102652
  heat_capacity:    1952.3473410
  energy:           1549.8763427

- temperature:       770.0000000
  free_energy:     -1423.4604696
  entropy:          3886.8386403
  heat_capacity:    1953.4339289
  energy:           1569.4052835

- temperature:       780.0000000
  free_energy:     -1462.4551795
  entropy:          3912.0513675
  heat_capacity:    1954.4802754
  energy:           1588.9448872

- temperature:       790.0000000
  free_energy:     -1501.7004699
  entropy:          3936.9559889
  heat_capacity:    1955.4883285
  energy:           1608.4947613

- temperature:       800.0000000
  free_energy:     -1541.1932965
  entropy:          3961.5597859
  heat_capacity:    1956.4599203
  energy:           1628.0545322

- temperature:       810.0000000
  free_energy:     -1580.9306864
  entropy:          3985.8697905
  heat_capacity:    1957.3967755
  energy:           1647.6238440

- temperature:       820.0000000
  free_energy:     -1620.9097357
  entropy:          4009.8927964
  heat_capacity:    1958.3005189
  energy:           1667.2023574

- temperature:       830.0000000
  free_energy:     -1661.1276075
  entropy:          4033.6353694
  heat_capacity:    1959.1726819
  energy:           1686.7897491

- temperature:       840.0000000
  free_energy:     -1701.5815295
  entropy:          4057.1038572
  heat_capacity:    1960.0147092
  energy:           1706.3857106

- temperature:       850.0000000
  free_energy:     -1742.2687916
  entropy:          4080.3043987
  heat_capacity:    1960.8279640
  energy:           1725.9899474

- temperature:       860.0000000
  free_energy:     -1783.1867441
  entropy:          4103.2429330
  heat_capacity:    1961.6137342
  energy:           1745.6021782

- temperature:       870.0000000
  free_energy:     -1824.3327960
  entropy:          4125.9252075
  heat_capacity:    1962.3732366
  energy:           1765.2221345

- temperature:       880.0000000
  free_energy:     -1865.7044126
  entropy:          4148.3567863
  heat_capacity:    1963.1076221
  energy:           1784.8495593

- temperature:       890.0000000
  free_energy:     -1907.2991141
  entropy:          4170.5430572
  heat_capacity:    1963.8179794
  energy:           1804.4842069

- temperature:       900.0000000
  free_energy:     -1949.1144735
  entropy:          4192.4892397
  heat_capacity:    1964.5053393
  energy:           1824.1258422

- temperature:       910.0000000
  free_energy:     -1991.1481155
  entropy:          4214.2003909
  heat_capacity:    1965.1706781
  energy:           1843.7742402

- temperature:       920.0000000
  free_energy:     -2033.3977142
  entropy:          4235.6814127
  heat_capacity:    1965.8149214
  energy:           1863.4291854

- temperature:       930.0000000
  free_energy:     -2075.8609925
  entropy:          4256.9370578
  heat_capacity:    1966.4389468
  energy:           1883.0904713

- temperature:       940.0000000
  free_energy:     -2118.5357195
  entropy:          4277.9719354
  heat_capacity:    1967.0435869
  energy:           1902.7578998

- temperature:       950.0000000
  free_energy:     -2161.4197102
  entropy:          4298.7905171
  heat_capacity:    1967.6296322
  energy:           1922.4312810

- temperature:       960.0000000
  free_energy:     -2204.5108234
  entropy:          4319.3971420
  heat_capacity:    1968.1978335
  energy:           1942.1104329

- temperature:       970.0000000
  free_energy:     -2247.8069606
  entropy:          4339.7960218
  heat_capacity:    1968.7489044
  energy:           1961.7951806

- temperature:       980.0000000
  free_energy:     -2291.3060650
  entropy:          4359.9912461
  heat_capacity:    1969.2835231
  energy:           1981.4853562

- temperature:       990.0000000
  free_energy:     -2335.0061199
  entropy:          4379.9867861
  heat_capacity:    1969.8023350
  energy:           2001.1807984

- temperature:      1000.0000000
  free_energy:     -2378.9051479
  entropy:          4399.7865002
  heat_capacity:    1970.3059541
  energy:           2020.8813522

- temperature:      1010.0000000
  free_energy:     -2423.0012097
  entropy:          4419.3941371
  heat_capacity:    1970.7949652
  energy:           2040.5868688

- temperature:      1020.0000000
  free_energy:     -2467.2924026
  entropy:          4438.8133405
  heat_capacity:    1971.2699252
  energy:           2060.2972047

- temperature:      1030.0000000
  free_energy:     -2511.7768602
  entropy:          4458.0476528
  heat_capacity:    1971.7313649
  energy:           2080.0122222

- temperature:      1040.0000000
  free_energy:     -2556.4527508
  entropy:          4477.1005187
  heat_capacity:    1972.1797905
  energy:           2099.7317886

- temperature:      1050.0000000
  free_energy:     -2601.3182769
  entropy:          4495.9752887
  heat_capacity:    1972.6156846
  energy:           2119.4557763

- temperature:      1060.0000000
  free_energy:     -2646.3716738
  entropy:          4514.6752226
  heat_capacity:    1973.0395079
  energy:           2139.1840621

- temperature:      1070.0000000
  free_energy:     -2691.6112092
  entropy:          4533.2034923
  heat_capacity:    1973.4517001
  energy:           2158.9165276

- temperature:      1080.0000000
  free_energy:     -2737.0351818
  entropy:          4551.5631856
  heat_capacity:    1973.8526813
  energy:           2178.6530587

- temperature:      1090.0000000
  free_energy:     -2782.6419210
  entropy:          4569.7573085
  heat_capacity:    1974.2428528
  energy:           2198.3935452

- temperature:      1100.0000000
  free_energy:     -2828.4297858
  entropy:          4587.7887880
  heat_capacity:    1974.6225980
  energy:           2218.1378810

- temperature:      1110.0000000
  free_energy:     -2874.3971641
  entropy:          4605.6604755
  heat_capacity:    1974.9922839
  energy:           2237.8859637

- temperature:      1120.0000000
  free_energy:     -2920.5424719
  entropy:          4623.3751485
  heat_capacity:    1975.3522611
  energy:           2257.6376943

- temperature:      1130.0000000
  free_energy:     -2966.8641527
  entropy:          4640.9355136
  heat_capacity:    1975.7028656
  energy:           2277.3929777

- temperature:      1140.0000000
  free_energy:     -3013.3606766
  entropy:          4658.3442089
  heat_capacity:    1976.0444185
  energy:           2297.1517215

- temperature:      1150.0000000
  free_energy:     -3060.0305399
  entropy:          4675.6038059
  heat_capacity:    1976.3772279
  energy:           2316.9138369

- temperature:      1160.0000000
  free_energy:     -3106.8722641
  entropy:          4692.7168121
  heat_capacity:    1976.7015884
  energy:           2336.6792379

- temperature:      1170.0000000
  free_energy:     -3153.8843957
  entropy:          4709.6856727
  heat_capacity:    1977.0177828
  energy:           2356.4478414

- temperature:      1180.0000000
  free_energy:     -3201.0655051
  entropy:          4726.5127731
  heat_capacity:    1977.3260818
  energy:           2376.2195672

- temperature:      1190.0000000
  free_energy:     -3248.4141864
  entropy:          4743.2004403
  heat_capacity:    1977.6267454
  energy:           2395.9943376

- temperature:      1200.0000000
  free_energy:     -3295.9290567
  entropy:          4759.7509451
  heat_capacity:    1977.9200228
  energy:           2415.7720775

- temperature:      1210.0000000
  free_energy:     -3343.6087554
  entropy:          4776.1665039
  heat_capacity:    1978.2061531
  energy:           2435.5527143

- temperature:      1220.0000000
  free_energy:     -3391.4519441
  entropy:          4792.4492800
  heat_capacity:    1978.4853660
  energy:           2455.3361775

- temperature:      1230.0000000
  free_energy:     -3439.4573055
  entropy:          4808.6013860
  heat_capacity:    1978.7578819
  energy:           2475.1223992

- temperature:      1240.0000000
  free_energy:     -3487.6235432
  entropy:          4824.6248844
  heat_capacity:    1979.0239128
  energy:           2494.9113135

- temperature:      1250.0000000
  free_energy:     -3535.9493812
  entropy:          4840.5217902
  heat_capacity:    1979.2836620
  energy:           2514.7028566

- temperature:      1260.0000000
  free_energy:     -3584.4335636
  entropy:          4856.2940715
  heat_capacity:    1979.5373252
  energy:           2534.4969665

- temperature:      1270.0000000
  free_energy:     -3633.0748536
  entropy:          4871.9436512
  heat_capacity:    1979.7850906
  energy:           2554.2935834

- temperature:      1280.0000000
  free_energy:     -3681.8720338
  entropy:          4887.4724087
  heat_capacity:    1980.0271389
  energy:           2574.0926492

- temperature:      1290.0000000
  free_energy:     -3730.8239052
  entropy:          4902.8821806
  heat_capacity:    1980.2636444
  energy:           2593.8941077

- temperature:      1300.0000000
  free_energy:     -3779.9292868
  entropy:          4918.1747623
  heat_capacity:    1980.4947744
  energy:           2613.6979042

- temperature:      1310.0000000
  free_energy:     -3829.1870157
  entropy:          4933.3519095
  heat_capacity:    1980.7206902
  energy:           2633.5039858

- temperature:      1320.0000000
  free_energy:     -3878.5959460
  entropy:          4948.4153387
  heat_capacity:    1980.9415469
  energy:           2653.3123012

- temperature:      1330.0000000
  free_energy:     -3928.1549490
  entropy:          4963.3667289
  heat_capacity:    1981.1574943
  energy:           2673.1228004

- temperature:      1340.0000000
  free_energy:     -3977.8629126
  entropy:          4978.2077222
  heat_capacity:    1981.3686762
  energy:           2692.9354352

- temperature:      1350.0000000
  free_energy:     -4027.7187408
  entropy:          4992.9399254
  heat_capacity:    1981.5752316
  energy:           2712.7501585

- temperature:      1360.0000000
  free_energy:     -4077.7213537
  entropy:          5007.5649107
  heat_capacity:    1981.7772942
  energy:           2732.5669248

- temperature:      1370.0000000
  free_energy:     -4127.8696867
  entropy:          5022.0842165
  heat_capacity:    1981.9749931
  energy:           2752.3856898

- temperature:      1380.0000000
  free_energy:     -4178.1626908
  entropy:          5036.4993488
  heat_capacity:    1982.1684527
  energy:           2772.2064105

- temperature:      1390.0000000
  free_energy:     -4228.5993314
  entropy:          5050.8117817
  heat_capacity:    1982.3577930
  energy:           2792.0290452

- temperature:      1400.0000000
  free_energy:     -4279.1785889
  entropy:          5065.0229585
  heat_capacity:    1982.5431299
  energy:           2811.8535531

- temperature:      1410.0000000
  free_energy:     -4329.8994578
  entropy:          5079.1342926
  heat_capacity:    1982.7245753
  energy:           2831.6798948

- temperature:      1420.0000000
  free_energy:     -4380.7609465
  entropy:          5093.1471680
  heat_capacity:    1982.9022369
  energy:           2851.5080320

- temperature:      1430.0000000
  free_energy:     -4431.7620774
  entropy:          5107.0629404
  heat_capacity:    1983.0762192
  energy:           2871.3379273

- temperature:      1440.0000000
  free_energy:     -4482.9018861
  entropy:          5120.8829379
  heat_capacity:    1983.2466227
  energy:           2891.1695444

- temperature:      1450.0000000
  free_energy:     -4534.1794213
  entropy:          5134.6084617
  heat_capacity:    1983.4135446
  energy:           2911.0028481

- temperature:      1460.0000000
  free_energy:     -4585.5937447
  entropy:          5148.2407868
  heat_capacity:    1983.5770791
  energy:           2930.8378040

- temperature:      1470.0000000
  free_energy:     -4637.1439305
  entropy:          5161.7811627
  heat_capacity:    1983.7373169
  energy:           2950.6743787

- temperature:      1480.0000000
  free_energy:     -4688.8290655
  entropy:          5175.2308143
  heat_capacity:    1983.8943458
  energy:           2970.5125397

- temperature:      1490.0000000
  free_energy:     -4740.6482484
  entropy:          5188.5909420
  heat_capacity:    1984.0482509
  energy:           2990.3522552

- temperature:      1500.0000000
  free_energy:     -4792.6005899
  entropy:          5201.8627229
  heat_capacity:    1984.1991141
  energy:           3010.1934945

- temperature:      1510.0000000
  free_energy:     -4844.6852122
  entropy:          5215.0473112
  heat_capacity:    1984.3470151
  energy:           3030.0362276

- temperature:      1520.0000000
  free_energy:     -4896.9012492
  entropy:          5228.1458385
  heat_capacity:    1984.4920306
  energy:           3049.8804252

- temperature:      1530.0000000
  free_energy:     -4949.2478458
  entropy:          5241.1594148
  heat_capacity:    1984.6342351
  energy:           3069.7260589

- temperature:      1540.0000000
  free_energy:     -5001.7241580
  entropy:          5254.0891291
  heat_capacity:    1984.7737007
  energy:           3089.5731008

- temperature:      1550.0000000
  free_energy:     -5054.3293524
  entropy:          5266.9360493
  heat_capacity:    1984.9104971
  energy:           3109.4215240

- temperature:      1560.0000000
  free_energy:     -5107.0626065
  entropy:          5279.7012234
  heat_capacity:    1985.0446918
  energy:           3129.2713021

- temperature:      1570.0000000
  free_energy:     -5159.9231078
  entropy:          5292.3856797
  heat_capacity:    1985.1763502
  energy:           3149.1224094

- temperature:      1580.0000000
  free_energy:     -5212.9100544
  entropy:          5304.9904273
  heat_capacity:    1985.3055359
  energy:           3168.9748208

- temperature:      1590.0000000
  free_energy:     -5266.0226540
  entropy:          5317.5164566
  heat_capacity:    1985.4323101
  energy:           3188.8285120

- temperature:      1600.0000000
  free_energy:     -5319.2601244
  entropy:          5329.9647397
  heat_capacity:    1985.5567324
  energy:           3208.6834592

- temperature:      1610.0000000
  free_energy:     -5372.6216928
  entropy:          5342.3362310
  heat_capacity:    1985.6788606
  energy:           3228.5396390

- temperature:      1620.0000000
  free_energy:     -5426.1065961
  entropy:          5354.6318673
  heat_capacity:    1985.7987505
  energy:           3248.3970289

- temperature:      1630.0000000
  free_energy:     -5479.7140804
  entropy:          5366.8525688
  heat_capacity:    1985.9164565
  energy:           3268.2556068

- temperature:      1640.0000000
  free_energy:     -5533.4434007
  entropy:          5378.9992388
  heat_capacity:    1986.0320312
  energy:           3288.1153510

- temperature:      1650.0000000
  free_energy:     -5587.2938214
  entropy:          5391.0727647
  heat_capacity:    1986.1455256
  energy:           3307.9762405

- temperature:      1660.0000000
  free_energy:     -5641.2646151
  entropy:          5403.0740180
  heat_capacity:    1986.2569893
  energy:           3327.8382547

- temperature:      1670.0000000
  free_energy:     -5695.3550637
  entropy:          5415.0038547
  heat_capacity:    1986.3664703
  energy:           3347.7013736

- temperature:      1680.0000000
  free_energy:     -5749.5644570
  entropy:          5426.8631159
  heat_capacity:    1986.4740154
  energy:           3367.5655777

- temperature:      1690.0000000
  free_energy:     -5803.8920935
  entropy:          5438.6526279
  heat_capacity:    1986.5796698
  energy:           3387.4308476

- temperature:      1700.0000000
  free_energy:     -5858.3372797
  entropy:          5450.3732027
  heat_capacity:    1986.6834774
  energy:           3407.2971649

- temperature:      1710.0000000
  free_energy:     -5912.8993304
  entropy:          5462.0256384
  heat_capacity:    1986.7854811
  energy:           3427.1645112

- temperature:      1720.0000000
  free_energy:     -5967.5775680
  entropy:          5473.6107190
  heat_capacity:    1986.8857224
  energy:           3447.0328686

- temperature:      1730.0000000
  free_energy:     -6022.3713228
  entropy:          5485.1292154
  heat_capacity:    1986.9842414
  energy:           3466.9022199

- temperature:      1740.0000000
  free_energy:     -6077.2799329
  entropy:          5496.5818855
  heat_capacity:    1987.0810774
  energy:           3486.7725479

- temperature:      1750.0000000
  free_energy:     -6132.3027436
  entropy:          5507.9694740
  heat_capacity:    1987.1762685
  energy:           3506.6438359

- temperature:      1760.0000000
  free_energy:     -6187.4391079
  entropy:          5519.2927135
  heat_capacity:    1987.2698516
  energy:           3526.5160679

- temperature:      1770.0000000
  free_energy:     -6242.6883858
  entropy:          5530.5523240
  heat_capacity:    1987.3618627
  energy:           3546.3892277

- temperature:      1780.0000000
  free_energy:     -6298.0499446
  entropy:          5541.7490138